 Gaussian 16, Revision C.01,
 Gaussian 16:  ES64L-G16RevC.01  3-Jul-2019

 --------------------------------------------
 # pbepbe/6-31+G** opt scf=tight int=finegrid
 --------------------------------------------

 ------------------------
 optimization calculation
 ------------------------
 Symbolic Z-matrix:
 Charge =  0 Multiplicity = 1

 SCF Done:  E(RPBE-PBE) =  -538.866240072     A.U. after   13 cycles
 SCF Done:  E(RPBE-PBE) =  -538.867157020     A.U. after   10 cycles
 SCF Done:  E(RPBE-PBE) =  -538.867166352     A.U. after    8 cycles
 Optimization completed.
    -- Stationary point found.

                         Standard orientation:
 ---------------------------------------------------------------------
 Center     Atomic      Atomic             Coordinates (Angstroms)
 Number     Number       Type             X           Y           Z
 ---------------------------------------------------------------------
      1          6           0       -0.726956    1.230488    0.000000
      2          6           0        1.411458    0.000001    0.000000
      3          1           0        2.508008    0.000003    0.000000
      4          6           0        0.726954    1.230487    0.000000
      5          6           0        0.714918    3.679673    0.000000
      6          1           0        1.253945    4.632034    0.000000
      7          6           0       -0.714916    3.679672    0.000000
      8          1           0       -1.253943    4.632034    0.000000
      9          6           0        1.413800    2.488632    0.000000
     10          1           0        2.509279    2.486396    0.000000
     11          6           0       -1.413800    2.488633    0.000000
     12          1           0        2.509279   -2.486402    0.000000
     13          6           0        0.726956   -1.230488    0.000000
     14          6           0       -1.411458   -0.000001    0.000000
     15          1           0       -2.508008   -0.000003    0.000000
     16          6           0       -0.726954   -1.230487    0.000000
     17          6           0       -0.714918   -3.679673    0.000000
     18          1           0       -1.253945   -4.632034    0.000000
     19          6           0        0.714916   -3.679672    0.000000
     20          1           0        1.253943   -4.632034    0.000000
     21          6           0       -1.413800   -2.488632    0.000000
     22          1           0       -2.509279   -2.486396    0.000000
     23          6           0        1.413800   -2.488633    0.000000
     24          1           0       -2.509279    2.486402    0.000000
 ---------------------------------------------------------------------

 The electronic state is 1-AG.
 Alpha  occ. eigenvalues --   -9.92290  -9.92289  -9.92267  -9.92266  -9.91438
 Alpha  occ. eigenvalues --   -9.91438  -9.91419  -9.91419  -9.91391  -9.91391
 Alpha  occ. eigenvalues --   -9.91384  -9.91383  -9.91375  -9.91375  -0.80560
 Alpha  occ. eigenvalues --   -0.77616  -0.73020  -0.71433  -0.68385  -0.67245
 Alpha  occ. eigenvalues --   -0.63808  -0.58624  -0.55822  -0.54422  -0.53509
 Alpha  occ. eigenvalues --   -0.48740  -0.47103  -0.45452  -0.41661  -0.41493
 Alpha  occ. eigenvalues --   -0.40454  -0.39992  -0.37894  -0.36964  -0.36258
 Alpha  occ. eigenvalues --   -0.36239  -0.34642  -0.33551  -0.32802  -0.30711
 Alpha  occ. eigenvalues --   -0.29630  -0.28855  -0.27652  -0.27226  -0.23561
 Alpha  occ. eigenvalues --   -0.22477  -0.18144
 Alpha virt. eigenvalues --   -0.09666  -0.05071  -0.03859  -0.01541  -0.00672
 Alpha virt. eigenvalues --   -0.00257  -0.00192   0.01435   0.01675   0.01855
 Alpha virt. eigenvalues --    0.03584   0.03614   0.03944   0.04769   0.04878

 Mulliken charges:
               1
     1  C    0.135897
     2  C   -0.056607
     3  H    0.138469
     4  C    0.135902
     5  C   -0.169390
     6  H    0.142924
     7  C   -0.169389
     8  H    0.142923
     9  C   -0.291394
    10  H    0.141028
    11  C   -0.291393
    12  H    0.141029
    13  C    0.135897
    14  C   -0.056607
    15  H    0.138469
    16  C    0.135902
    17  C   -0.169390
    18  H    0.142924
    19  C   -0.169389
    20  H    0.142923
    21  C   -0.291394
    22  H    0.141028
    23  C   -0.291393
    24  H    0.141029
 Sum of Mulliken charges =  -0.00000

 Dipole moment (field-independent basis, Debye):
    X=              0.0000    Y=             -0.0000    Z=              0.0000  Tot=              0.0000
 Quadrupole moment (field-independent basis, Debye-Ang):
   XX=            -71.8643   YY=            -71.3828   ZZ=            -88.9668
   XY=             -0.0000   XZ=              0.0000   YZ=              0.0000

 Normal termination of Gaussian 16 at Fri Dec 20 14:27:59 2024.
