 Gaussian 16, Revision C.01,
 Gaussian 16:  ES64L-G16RevC.01  3-Jul-2019

 -----------------------------------------------------------------
 #p pbepbe/STO-3G pop=regular scf=tight int=finegrid pop=Hirshfeld
 -----------------------------------------------------------------

 --------------------
 orbitals calculation
 --------------------
 Symbolic Z-matrix:
 Charge =  0 Multiplicity = 1

                         Standard orientation:
 ---------------------------------------------------------------------
 Center     Atomic      Atomic             Coordinates (Angstroms)
 Number     Number       Type             X           Y           Z
 ---------------------------------------------------------------------
      1          6           0        1.230489    0.726955    0.000000
      2          6           0        0.000000   -1.411458    0.000000
      3          1           0        0.000001   -2.508008    0.000000
      4          6           0        1.230486   -0.726955    0.000000
      5          6           0        3.679672   -0.714921    0.000000
      6          1           0        4.632033   -1.253948    0.000000
      7          6           0        3.679672    0.714913    0.000000
      8          1           0        4.632035    1.253940    0.000000
      9          6           0        2.488631   -1.413802    0.000000
     10          1           0        2.486394   -2.509281    0.000000
     11          6           0        2.488634    1.413798    0.000000
     12          1           0       -2.486404   -2.509277    0.000000
     13          6           0       -1.230489   -0.726955    0.000000
     14          6           0       -0.000000    1.411458    0.000000
     15          1           0       -0.000001    2.508008    0.000000
     16          6           0       -1.230486    0.726955    0.000000
     17          6           0       -3.679672    0.714921    0.000000
     18          1           0       -4.632033    1.253948    0.000000
     19          6           0       -3.679672   -0.714913    0.000000
     20          1           0       -4.632035   -1.253940    0.000000
     21          6           0       -2.488631    1.413802    0.000000
     22          1           0       -2.486394    2.509281    0.000000
     23          6           0       -2.488634   -1.413798    0.000000
     24          1           0        2.486404    2.509277    0.000000
 ---------------------------------------------------------------------

 SCF Done:  E(RPBE-PBE) =  -532.282309627     A.U. after   13 cycles

 The electronic state is 1-AG.
 Alpha  occ. eigenvalues --   -9.72850  -9.72844  -9.72742  -9.72738  -9.71496
 Alpha  occ. eigenvalues --   -9.71496  -9.71413  -9.71413  -9.71341  -9.71341
 Alpha  occ. eigenvalues --   -9.71317  -9.71317  -9.71241  -9.71233  -0.75219
 Alpha  occ. eigenvalues --   -0.72369  -0.67863  -0.66310  -0.63336  -0.62037
 Alpha  occ. eigenvalues --   -0.58777  -0.53549  -0.50829  -0.49629  -0.48609
 Alpha  occ. eigenvalues --   -0.43888  -0.42284  -0.40673  -0.37030  -0.36367
 Alpha  occ. eigenvalues --   -0.35770  -0.34509  -0.32943  -0.32082  -0.30597
 Alpha  occ. eigenvalues --   -0.30232  -0.29554  -0.28464  -0.26595  -0.25519
 Alpha  occ. eigenvalues --   -0.23936  -0.23281  -0.21074  -0.20679  -0.16750
 Alpha  occ. eigenvalues --   -0.15675  -0.10878
 Alpha virt. eigenvalues --   -0.00843   0.04643   0.06133   0.11175   0.11595
 Alpha virt. eigenvalues --    0.19730   0.25783   0.29622   0.30025   0.31453
 Alpha virt. eigenvalues --    0.34680   0.34985   0.36933   0.38538   0.38876

 Mulliken charges:
               1
     1  C   -0.006674
     2  C   -0.080989
     3  H    0.085049
     4  C   -0.006674
     5  C   -0.087042
     6  H    0.088048
     7  C   -0.087042
     8  H    0.088048
     9  C   -0.082960
    10  H    0.086598
    11  C   -0.082961
    12  H    0.086598
    13  C   -0.006674
    14  C   -0.080989
    15  H    0.085049
    16  C   -0.006674
    17  C   -0.087042
    18  H    0.088048
    19  C   -0.087042
    20  H    0.088048
    21  C   -0.082960
    22  H    0.086598
    23  C   -0.082961
    24  H    0.086598
 Sum of Mulliken charges =  -0.00000

 Dipole moment (field-independent basis, Debye):
    X=              0.0000    Y=              0.0000    Z=              0.0000  Tot=              0.0000
 Quadrupole moment (field-independent basis, Debye-Ang):
   XX=            -66.6892   YY=            -66.8497   ZZ=            -78.4776
   XY=             -0.0000   XZ=              0.0000   YZ=              0.0000

 Normal termination of Gaussian 16 at Thu Dec 26 16:59:46 2024.
