 Gaussian 16, Revision C.01,
 Gaussian 16:  ES64L-G16RevC.01  3-Jul-2019

 -------------------------------------------------------------------
 #p pbepbe/6-31+G** pop=regular scf=tight int=finegrid pop=Hirshfeld
 -------------------------------------------------------------------

 --------------------
 orbitals calculation
 --------------------
 Symbolic Z-matrix:
 Charge =  0 Multiplicity = 1

                         Standard orientation:
 ---------------------------------------------------------------------
 Center     Atomic      Atomic             Coordinates (Angstroms)
 Number     Number       Type             X           Y           Z
 ---------------------------------------------------------------------
      1          6           0        1.230489    0.726955    0.000000
      2          6           0        0.000000   -1.411458    0.000000
      3          1           0        0.000001   -2.508008    0.000000
      4          6           0        1.230486   -0.726955    0.000000
      5          6           0        3.679672   -0.714921    0.000000
      6          1           0        4.632033   -1.253948    0.000000
      7          6           0        3.679672    0.714913    0.000000
      8          1           0        4.632035    1.253940    0.000000
      9          6           0        2.488631   -1.413802    0.000000
     10          1           0        2.486394   -2.509281    0.000000
     11          6           0        2.488634    1.413798    0.000000
     12          1           0       -2.486404   -2.509277    0.000000
     13          6           0       -1.230489   -0.726955    0.000000
     14          6           0       -0.000000    1.411458    0.000000
     15          1           0       -0.000001    2.508008    0.000000
     16          6           0       -1.230486    0.726955    0.000000
     17          6           0       -3.679672    0.714921    0.000000
     18          1           0       -4.632033    1.253948    0.000000
     19          6           0       -3.679672   -0.714913    0.000000
     20          1           0       -4.632035   -1.253940    0.000000
     21          6           0       -2.488631    1.413802    0.000000
     22          1           0       -2.486394    2.509281    0.000000
     23          6           0       -2.488634   -1.413798    0.000000
     24          1           0        2.486404    2.509277    0.000000
 ---------------------------------------------------------------------

 SCF Done:  E(RPBE-PBE) =  -538.867166352     A.U. after   13 cycles

 The electronic state is 1-AG.
 Alpha  occ. eigenvalues --   -9.92290  -9.92289  -9.92267  -9.92266  -9.91438
 Alpha  occ. eigenvalues --   -9.91438  -9.91419  -9.91419  -9.91391  -9.91391
 Alpha  occ. eigenvalues --   -9.91384  -9.91383  -9.91375  -9.91375  -0.80560
 Alpha  occ. eigenvalues --   -0.77616  -0.73020  -0.71433  -0.68385  -0.67245
 Alpha  occ. eigenvalues --   -0.63808  -0.58624  -0.55822  -0.54422  -0.53509
 Alpha  occ. eigenvalues --   -0.48740  -0.47103  -0.45452  -0.41661  -0.41493
 Alpha  occ. eigenvalues --   -0.40454  -0.39992  -0.37894  -0.36964  -0.36258
 Alpha  occ. eigenvalues --   -0.36239  -0.34642  -0.33551  -0.32802  -0.30711
 Alpha  occ. eigenvalues --   -0.29630  -0.28855  -0.27652  -0.27226  -0.23561
 Alpha  occ. eigenvalues --   -0.22477  -0.18144
 Alpha virt. eigenvalues --   -0.09666  -0.05071  -0.03859  -0.01541  -0.00672
 Alpha virt. eigenvalues --   -0.00257  -0.00192   0.01435   0.01675   0.01855
 Alpha virt. eigenvalues --    0.03584   0.03614   0.03944   0.04769   0.04878

 Mulliken charges:
               1
     1  C    0.135897
     2  C   -0.056608
     3  H    0.138469
     4  C    0.135904
     5  C   -0.169390
     6  H    0.142924
     7  C   -0.169389
     8  H    0.142923
     9  C   -0.291395
    10  H    0.141028
    11  C   -0.291392
    12  H    0.141029
    13  C    0.135897
    14  C   -0.056608
    15  H    0.138469
    16  C    0.135904
    17  C   -0.169390
    18  H    0.142924
    19  C   -0.169389
    20  H    0.142923
    21  C   -0.291395
    22  H    0.141028
    23  C   -0.291392
    24  H    0.141029
 Sum of Mulliken charges =  -0.00000

 Dipole moment (field-independent basis, Debye):
    X=             -0.0000    Y=              0.0000    Z=              0.0000  Tot=              0.0000
 Quadrupole moment (field-independent basis, Debye-Ang):
   XX=            -71.3828   YY=            -71.8643   ZZ=            -88.9668
   XY=             -0.0000   XZ=              0.0000   YZ=              0.0000

 Normal termination of Gaussian 16 at Thu Dec 26 16:59:40 2024.
