 Gaussian 16, Revision C.01,
 Gaussian 16:  ES64L-G16RevC.01  3-Jul-2019

 ---------------------------------------------------------------
 #p pbepbe/6-31+G** pop=regular scf=tight int=finegrid formcheck
 ---------------------------------------------------------------

 --------------------
 orbitals calculation
 --------------------
 Symbolic Z-matrix:
 Charge =  0 Multiplicity = 1

                         Standard orientation:
 ---------------------------------------------------------------------
 Center     Atomic      Atomic             Coordinates (Angstroms)
 Number     Number       Type             X           Y           Z
 ---------------------------------------------------------------------
      1          6           0       -0.728910    1.240989    0.000000
      2          6           0        1.396875    0.000000   -0.000000
      3          9           0        2.747516   -0.000001   -0.000000
      4          6           0        0.728910    1.240989   -0.000000
      5          6           0        0.710999    3.691678   -0.000000
      6          9           0        1.355858    4.870119   -0.000000
      7          6           0       -0.710999    3.691678    0.000000
      8          9           0       -1.355859    4.870118    0.000000
      9          6           0        1.410584    2.501018   -0.000000
     10          9           0        2.756722    2.562510   -0.000000
     11          6           0       -1.410584    2.501018    0.000000
     12          9           0        2.756722   -2.562509   -0.000000
     13          6           0        0.728910   -1.240989    0.000000
     14          6           0       -1.396875    0.000000   -0.000000
     15          9           0       -2.747516    0.000001   -0.000000
     16          6           0       -0.728910   -1.240989   -0.000000
     17          6           0       -0.710999   -3.691678   -0.000000
     18          9           0       -1.355858   -4.870119   -0.000000
     19          6           0        0.710999   -3.691678    0.000000
     20          9           0        1.355859   -4.870118    0.000000
     21          6           0       -1.410584   -2.501018   -0.000000
     22          9           0       -2.756722   -2.562510   -0.000000
     23          6           0        1.410584   -2.501018    0.000000
     24          9           0       -2.756722    2.562509   -0.000000
 ---------------------------------------------------------------------

 SCF Done:  E(RPBE-PBE) =  -1530.36127717     A.U. after   13 cycles

 The electronic state is 1-AG.
 Alpha  occ. eigenvalues --  -24.34946 -24.34946 -24.34945 -24.34945 -24.34193
 Alpha  occ. eigenvalues --  -24.34193 -24.34193 -24.34193 -24.33713 -24.33712
 Alpha  occ. eigenvalues --  -10.04317 -10.04317 -10.04288 -10.04288 -10.04281
 Alpha  occ. eigenvalues --  -10.04281 -10.04186 -10.04186 -10.04186 -10.04186
 Alpha  occ. eigenvalues --   -9.98859  -9.98858  -9.98837  -9.98836  -1.18650
 Alpha  occ. eigenvalues --   -1.18623  -1.17857  -1.17706  -1.17253  -1.16867
 Alpha  occ. eigenvalues --   -1.16738  -1.16370  -1.16144  -1.16024  -0.86836
 Alpha  occ. eigenvalues --   -0.84312  -0.79526  -0.76135  -0.74171  -0.73944
 Alpha  occ. eigenvalues --   -0.69911  -0.65678  -0.64852  -0.61853  -0.60310
 Alpha  occ. eigenvalues --   -0.58475  -0.56647  -0.56339  -0.54878  -0.54515
 Alpha  occ. eigenvalues --   -0.53512  -0.53011  -0.51509  -0.51244  -0.50963
 Alpha  occ. eigenvalues --   -0.49592  -0.49412  -0.48811  -0.48250  -0.47435
 Alpha  occ. eigenvalues --   -0.45912  -0.45755  -0.45695  -0.45279  -0.44239
 Alpha  occ. eigenvalues --   -0.43802  -0.43446  -0.42679  -0.42366  -0.42148
 Alpha  occ. eigenvalues --   -0.40728  -0.39689  -0.39410  -0.39014  -0.38643
 Alpha  occ. eigenvalues --   -0.37605  -0.37244  -0.37014  -0.35820  -0.34630
 Alpha  occ. eigenvalues --   -0.34360  -0.33512  -0.29306  -0.29024  -0.26536
 Alpha  occ. eigenvalues --   -0.25952  -0.21014
 Alpha virt. eigenvalues --   -0.13473  -0.10028  -0.07164  -0.06861  -0.06188
 Alpha virt. eigenvalues --   -0.03004  -0.02873  -0.02189  -0.01536  -0.00052
 Alpha virt. eigenvalues --    0.01740   0.02039   0.02950   0.02987   0.03702

 Mulliken charges:
               1
     1  C    0.112374
     2  C    0.700214
     3  F   -0.279489
     4  C    0.112376
     5  C    0.266410
     6  F   -0.282259
     7  C    0.266410
     8  F   -0.282259
     9  C   -0.028793
    10  F   -0.278095
    11  C   -0.028794
    12  F   -0.278095
    13  C    0.112374
    14  C    0.700214
    15  F   -0.279489
    16  C    0.112376
    17  C    0.266410
    18  F   -0.282259
    19  C    0.266410
    20  F   -0.282259
    21  C   -0.028793
    22  F   -0.278095
    23  C   -0.028794
    24  F   -0.278095
 Sum of Mulliken charges =  -0.00000

 Dipole moment (field-independent basis, Debye):
    X=              0.0000    Y=              0.0000    Z=              0.0000  Tot=              0.0000
 Quadrupole moment (field-independent basis, Debye-Ang):
   XX=           -142.3860   YY=           -140.0130   ZZ=           -123.5068
   XY=             -0.0000   XZ=              0.0000   YZ=              0.0000

 Normal termination of Gaussian 16 at Thu Dec 26 16:24:55 2024.
