 Gaussian 16, Revision C.01,
 Gaussian 16:  ES64L-G16RevC.01  3-Jul-2019

 -----------------------------------------
 # pbepbe/6-311+G** scf=tight int=finegrid
 -----------------------------------------

 ---------------------
 basis set convergence
 ---------------------
 Symbolic Z-matrix:
 Charge =  0 Multiplicity = 1

                         Standard orientation:
 ---------------------------------------------------------------------
 Center     Atomic      Atomic             Coordinates (Angstroms)
 Number     Number       Type             X           Y           Z
 ---------------------------------------------------------------------
      1          6           0       -0.723287    1.223701    0.000000
      2          6           0        1.404204    0.000002    0.000000
      3          1           0        2.496353    0.000012    0.000000
      4          6           0        0.723276    1.223699    0.000000
      5          6           0        0.711475    3.659605    0.000000
      6          1           0        1.247809    4.608485    0.000000
      7          6           0       -0.711465    3.659600    0.000000
      8          1           0       -1.247802    4.608479    0.000000
      9          6           0        1.406424    2.476146    0.000000
     10          1           0        2.497521    2.475007    0.000000
     11          6           0       -1.406424    2.476152    0.000000
     12          1           0        2.497520   -2.475047    0.000000
     13          6           0        0.723287   -1.223701    0.000000
     14          6           0       -1.404204   -0.000002    0.000000
     15          1           0       -2.496353   -0.000012    0.000000
     16          6           0       -0.723276   -1.223699    0.000000
     17          6           0       -0.711475   -3.659605    0.000000
     18          1           0       -1.247809   -4.608485    0.000000
     19          6           0        0.711465   -3.659600    0.000000
     20          1           0        1.247802   -4.608479    0.000000
     21          6           0       -1.406424   -2.476146    0.000000
     22          1           0       -2.497521   -2.475007    0.000000
     23          6           0        1.406424   -2.476152    0.000000
     24          1           0       -2.497520    2.475047    0.000000
 ---------------------------------------------------------------------

 SCF Done:  E(RPBE-PBE) =  -538.958484367     A.U. after   12 cycles

 The electronic state is 1-AG.
 Alpha  occ. eigenvalues --   -9.90064  -9.90062  -9.90041  -9.90041  -9.89125
 Alpha  occ. eigenvalues --   -9.89124  -9.89103  -9.89102  -9.89099  -9.89099
 Alpha  occ. eigenvalues --   -9.89056  -9.89056  -9.89033  -9.89033  -0.80994
 Alpha  occ. eigenvalues --   -0.78032  -0.73393  -0.71709  -0.68640  -0.67475
 Alpha  occ. eigenvalues --   -0.64035  -0.58842  -0.56094  -0.54698  -0.53668
 Alpha  occ. eigenvalues --   -0.48836  -0.47555  -0.45830  -0.41822  -0.41677
 Alpha  occ. eigenvalues --   -0.40571  -0.40368  -0.38132  -0.37141  -0.36636
 Alpha  occ. eigenvalues --   -0.36567  -0.34827  -0.33711  -0.33177  -0.30843
 Alpha  occ. eigenvalues --   -0.29837  -0.28983  -0.27976  -0.27509  -0.23811
 Alpha  occ. eigenvalues --   -0.22686  -0.18333
 Alpha virt. eigenvalues --   -0.09754  -0.05185  -0.03910  -0.01686  -0.00793
 Alpha virt. eigenvalues --   -0.00259  -0.00159   0.01465   0.01742   0.01787
 Alpha virt. eigenvalues --    0.03489   0.03666   0.03779   0.04624   0.04936

 Mulliken charges:
               1
     1  C    0.038969
     2  C    0.303072
     3  H    0.118935
     4  C    0.038995
     5  C   -0.296968
     6  H    0.135014
     7  C   -0.296948
     8  H    0.135013
     9  C   -0.213858
    10  H    0.125823
    11  C   -0.213870
    12  H    0.125823
    13  C    0.038969
    14  C    0.303072
    15  H    0.118935
    16  C    0.038995
    17  C   -0.296968
    18  H    0.135014
    19  C   -0.296948
    20  H    0.135013
    21  C   -0.213858
    22  H    0.125823
    23  C   -0.213870
    24  H    0.125823
 Sum of Mulliken charges =  -0.00000

 Dipole moment (field-independent basis, Debye):
    X=              0.0000    Y=             -0.0000    Z=              0.0000  Tot=              0.0000
 Quadrupole moment (field-independent basis, Debye-Ang):
   XX=            -71.8066   YY=            -71.3473   ZZ=            -88.6867
   XY=             -0.0001   XZ=              0.0000   YZ=              0.0000

 Normal termination of Gaussian 16 at Fri Dec 20 14:13:43 2024.
