 Gaussian 16, Revision C.01,
 Gaussian 16:  ES64L-G16RevC.01  3-Jul-2019

 -----------------------------------------------------------------
 #p pbepbe/STO-3G pop=regular scf=tight int=finegrid pop=Hirshfeld
 -----------------------------------------------------------------

 --------------------
 orbitals calculation
 --------------------
 Symbolic Z-matrix:
 Charge =  0 Multiplicity = 1

                         Standard orientation:
 ---------------------------------------------------------------------
 Center     Atomic      Atomic             Coordinates (Angstroms)
 Number     Number       Type             X           Y           Z
 ---------------------------------------------------------------------
      1          6           0       -0.728910    1.240989    0.000000
      2          6           0        1.396875    0.000000   -0.000000
      3          9           0        2.747516   -0.000001   -0.000000
      4          6           0        0.728910    1.240989   -0.000000
      5          6           0        0.710999    3.691678   -0.000000
      6          9           0        1.355858    4.870119   -0.000000
      7          6           0       -0.710999    3.691678    0.000000
      8          9           0       -1.355859    4.870118    0.000000
      9          6           0        1.410584    2.501018   -0.000000
     10          9           0        2.756722    2.562510   -0.000000
     11          6           0       -1.410584    2.501018    0.000000
     12          9           0        2.756722   -2.562509   -0.000000
     13          6           0        0.728910   -1.240989    0.000000
     14          6           0       -1.396875    0.000000   -0.000000
     15          9           0       -2.747516    0.000001   -0.000000
     16          6           0       -0.728910   -1.240989   -0.000000
     17          6           0       -0.710999   -3.691678   -0.000000
     18          9           0       -1.355858   -4.870119   -0.000000
     19          6           0        0.710999   -3.691678    0.000000
     20          9           0        1.355859   -4.870118    0.000000
     21          6           0       -1.410584   -2.501018   -0.000000
     22          9           0       -2.756722   -2.562510   -0.000000
     23          6           0        1.410584   -2.501018    0.000000
     24          9           0       -2.756722    2.562509   -0.000000
 ---------------------------------------------------------------------

 SCF Done:  E(RPBE-PBE) =  -1509.29583295     A.U. after   14 cycles

 The electronic state is 1-AG.
 Alpha  occ. eigenvalues --  -24.02199 -24.02199 -24.02195 -24.02195 -24.01602
 Alpha  occ. eigenvalues --  -24.01602 -24.01602 -24.01602 -24.01467 -24.01466
 Alpha  occ. eigenvalues --   -9.77770  -9.77770  -9.77707  -9.77699  -9.77679
 Alpha  occ. eigenvalues --   -9.77679  -9.77565  -9.77565  -9.77549  -9.77548
 Alpha  occ. eigenvalues --   -9.72780  -9.72777  -9.72673  -9.72666  -1.05923
 Alpha  occ. eigenvalues --   -1.05883  -1.05126  -1.04912  -1.04529  -1.04061
 Alpha  occ. eigenvalues --   -1.03869  -1.03386  -1.03326  -1.03115  -0.75332
 Alpha  occ. eigenvalues --   -0.72865  -0.68072  -0.64525  -0.62593  -0.62339
 Alpha  occ. eigenvalues --   -0.58135  -0.53322  -0.53276  -0.49071  -0.46461
 Alpha  occ. eigenvalues --   -0.44606  -0.43342  -0.42040  -0.39460  -0.38450
 Alpha  occ. eigenvalues --   -0.38332  -0.35914  -0.35584  -0.35206  -0.34935
 Alpha  occ. eigenvalues --   -0.34576  -0.34403  -0.34396  -0.33916  -0.31457
 Alpha  occ. eigenvalues --   -0.31326  -0.30524  -0.29981  -0.28772  -0.28321
 Alpha  occ. eigenvalues --   -0.26391  -0.25428  -0.24010  -0.22767  -0.22648
 Alpha  occ. eigenvalues --   -0.19451  -0.19433  -0.18578  -0.18538  -0.18496
 Alpha  occ. eigenvalues --   -0.18481  -0.17677  -0.16707  -0.16601  -0.14514
 Alpha  occ. eigenvalues --   -0.14397  -0.14113  -0.12717  -0.11683  -0.10696
 Alpha  occ. eigenvalues --   -0.10062  -0.05722
 Alpha virt. eigenvalues --    0.01726   0.05132   0.07734   0.12441   0.12601
 Alpha virt. eigenvalues --    0.16692   0.17441   0.19423   0.20203   0.23087
 Alpha virt. eigenvalues --    0.23098   0.25917   0.26575   0.29478   0.29671

 Mulliken charges:
               1
     1  C   -0.047538
     2  C    0.072713
     3  F   -0.032872
     4  C   -0.047538
     5  C    0.041073
     6  F   -0.032223
     7  C    0.041073
     8  F   -0.032222
     9  C    0.052442
    10  F   -0.033675
    11  C    0.052442
    12  F   -0.033675
    13  C   -0.047538
    14  C    0.072713
    15  F   -0.032872
    16  C   -0.047538
    17  C    0.041073
    18  F   -0.032223
    19  C    0.041073
    20  F   -0.032222
    21  C    0.052442
    22  F   -0.033675
    23  C    0.052442
    24  F   -0.033675
 Sum of Mulliken charges =  -0.00000

 Dipole moment (field-independent basis, Debye):
    X=             -0.0000    Y=             -0.0000    Z=              0.0000  Tot=              0.0000
 Quadrupole moment (field-independent basis, Debye-Ang):
   XX=           -110.4187   YY=           -106.6364   ZZ=           -109.2636
   XY=             -0.0000   XZ=              0.0000   YZ=              0.0000

 Normal termination of Gaussian 16 at Thu Dec 26 17:08:22 2024.
